
FAST Summary File

Predictions were generated on 15-Apr-2023 at 19:55:58 using OpenFAST, compiled as a 64-bit application using single precision at commit v3.2.1-dirty
  compiled with
    NWTC Subroutine Library
    ElastoDyn
    BeamDyn (unknown version, unknown date) [not called]
    InflowWind (unknown version, unknown date) [not called]
    AeroDyn14 (unknown version, unknown date) [not called]
    AeroDyn (unknown version, unknown date) [not called]
    ServoDyn
    HydroDyn
    SubDyn (unknown version, unknown date) [not called]
    ExtPtfm_MCKF (unknown version, unknown date) [not called]
    MAP (unknown version, unknown date) [not called]
    FEAMooring (unknown version, unknown date) [not called]
    MoorDyn
    OrcaFlexInterface (unknown version, unknown date) [not called]
    IceFloe (unknown version, unknown date) [not called]
    IceDyn (unknown version, unknown date) [not called]


Modeling a floating offshore turbine
Description from the FAST input file: 
  FAST Certification Test #25: NREL 5.0 MW Baseline Wind Turbine with OC4-DeepCwind semi configuration, for use in offshore analysis

Interpolation order for input/output time histories: 2 (quadratic)
Number of correction iterations:  0
Number of rows in Jacobian matrix used for coupling ElastoDyn to HydroDyn:     12


   Requested Time Steps  
  -------------------------------------------------
  Component          Time Step (s)    Subcycles (-)
  -----------------  ---------------  -------------
  FAST (glue code)    1.250E-02
  ElastoDyn           1.250E-02              1
  ServoDyn            1.250E-02              1
  HydroDyn            1.250E-02              1
  MoorDyn             1.250E-02              1
  FAST output files   1.250E-02              1


   Requested Channels in FAST Output File(s)  
  --------------------------------------------
  Number  Name                  Units                 Generated by
  ------  --------------------  --------------------  ------------
       1  Time                  (s)                   OpenFAST
       2  Azimuth               (deg)                 ElastoDyn
       3  RotSpeed              (rpm)                 ElastoDyn
       4  GenSpeed              (rpm)                 ElastoDyn
       5  OoPDefl1              (m)                   ElastoDyn
       6  IPDefl1               (m)                   ElastoDyn
       7  TwstDefl1             (deg)                 ElastoDyn
       8  BldPitch1             (deg)                 ElastoDyn
       9  TTDspFA               (m)                   ElastoDyn
      10  TTDspSS               (m)                   ElastoDyn
      11  TTDspTwst             (deg)                 ElastoDyn
      12  PtfmSurge             (m)                   ElastoDyn
      13  PtfmSway              (m)                   ElastoDyn
      14  PtfmHeave             (m)                   ElastoDyn
      15  PtfmRoll              (deg)                 ElastoDyn
      16  PtfmPitch             (deg)                 ElastoDyn
      17  PtfmYaw               (deg)                 ElastoDyn
      18  GenPwr                (kW)                  ServoDyn
      19  GenTq                 (kN-m)                ServoDyn
      20  SStC1_XQ              (m)                   ServoDyn
      21  SStC1_XQD             (m/s)                 ServoDyn
      22  SStC1_YQ              (m)                   ServoDyn
      23  SStC1_YQD             (m/s)                 ServoDyn
      24  SStC1_ZQ              (m)                   ServoDyn
      25  SStC1_ZQD             (m/s)                 ServoDyn
      26  SStC1_bQ              (m)                   ServoDyn
      27  SStC1_bQD             (m/s)                 ServoDyn
      28  SStC1_Fxi             (kN)                  ServoDyn
      29  SStC1_Fyi             (kN)                  ServoDyn
      30  SStC1_Fzi             (kN)                  ServoDyn
      31  SStC1_Mxi             (kN-m)                ServoDyn
      32  SStC1_Myi             (kN-m)                ServoDyn
      33  SStC1_Mzi             (kN-m)                ServoDyn
      34  SStC1_Fxl             (kN)                  ServoDyn
      35  SStC1_Fyl             (kN)                  ServoDyn
      36  SStC1_Fzl             (kN)                  ServoDyn
      37  SStC1_Mxl             (kN-m)                ServoDyn
      38  SStC1_Myl             (kN-m)                ServoDyn
      39  SStC1_Mzl             (kN-m)                ServoDyn
      40  SStC2_XQ              (m)                   ServoDyn
      41  SStC2_XQD             (m/s)                 ServoDyn
      42  SStC2_YQ              (m)                   ServoDyn
      43  SStC2_YQD             (m/s)                 ServoDyn
      44  SStC2_ZQ              (m)                   ServoDyn
      45  SStC2_ZQD             (m/s)                 ServoDyn
      46  SStC2_bQ              (m)                   ServoDyn
      47  SStC2_bQD             (m/s)                 ServoDyn
      48  SStC2_Fxi             (kN)                  ServoDyn
      49  SStC2_Fyi             (kN)                  ServoDyn
      50  SStC2_Fzi             (kN)                  ServoDyn
      51  SStC2_Mxi             (kN-m)                ServoDyn
      52  SStC2_Myi             (kN-m)                ServoDyn
      53  SStC2_Mzi             (kN-m)                ServoDyn
      54  SStC2_Fxl             (kN)                  ServoDyn
      55  SStC2_Fyl             (kN)                  ServoDyn
      56  SStC2_Fzl             (kN)                  ServoDyn
      57  SStC2_Mxl             (kN-m)                ServoDyn
      58  SStC2_Myl             (kN-m)                ServoDyn
      59  SStC2_Mzl             (kN-m)                ServoDyn
      60  SStC3_XQ              (m)                   ServoDyn
      61  SStC3_XQD             (m/s)                 ServoDyn
      62  SStC3_YQ              (m)                   ServoDyn
      63  SStC3_YQD             (m/s)                 ServoDyn
      64  SStC3_ZQ              (m)                   ServoDyn
      65  SStC3_ZQD             (m/s)                 ServoDyn
      66  SStC3_bQ              (m)                   ServoDyn
      67  SStC3_bQD             (m/s)                 ServoDyn
      68  SStC3_Fxi             (kN)                  ServoDyn
      69  SStC3_Fyi             (kN)                  ServoDyn
      70  SStC3_Fzi             (kN)                  ServoDyn
      71  SStC3_Mxi             (kN-m)                ServoDyn
      72  SStC3_Myi             (kN-m)                ServoDyn
      73  SStC3_Mzi             (kN-m)                ServoDyn
      74  SStC3_Fxl             (kN)                  ServoDyn
      75  SStC3_Fyl             (kN)                  ServoDyn
      76  SStC3_Fzl             (kN)                  ServoDyn
      77  SStC3_Mxl             (kN-m)                ServoDyn
      78  SStC3_Myl             (kN-m)                ServoDyn
      79  SStC3_Mzl             (kN-m)                ServoDyn
      80  Wave1Elev             (m)                   HydroDyn
      81  HydroFxi              (N)                   HydroDyn
      82  HydroFyi              (N)                   HydroDyn
      83  HydroFzi              (N)                   HydroDyn
      84  HydroMxi              (N-m)                 HydroDyn
      85  HydroMyi              (N-m)                 HydroDyn
      86  HydroMzi              (N-m)                 HydroDyn
      87  B1Surge               (m)                   HydroDyn
      88  B1Sway                (m)                   HydroDyn
      89  B1Heave               (m)                   HydroDyn
      90  B1Roll                (rad)                 HydroDyn
      91  B1Pitch               (rad)                 HydroDyn
      92  B1Yaw                 (rad)                 HydroDyn
      93  FAIRTEN1              (N)                   MoorDyn
      94  FAIRTEN2              (N)                   MoorDyn
      95  FAIRTEN3              (N)                   MoorDyn
      96  ANCHTEN1              (N)                   MoorDyn
      97  ANCHTEN2              (N)                   MoorDyn
      98  ANCHTEN3              (N)                   MoorDyn
