
FAST Summary File

Predictions were generated on 15-Dec-2022 at 22:27:04 using OpenFAST, compiled as a 64-bit application using single precision at commit v3.2.1-dirty
  compiled with
    NWTC Subroutine Library
    ElastoDyn
    BeamDyn (unknown version, unknown date) [not called]
    InflowWind
    AeroDyn14 (unknown version, unknown date) [not called]
    AeroDyn (unknown version, unknown date) [not called]
    ServoDyn
    HydroDyn
    SubDyn (unknown version, unknown date) [not called]
    ExtPtfm_MCKF (unknown version, unknown date) [not called]
    MAP (unknown version, unknown date) [not called]
    FEAMooring (unknown version, unknown date) [not called]
    MoorDyn
    OrcaFlexInterface (unknown version, unknown date) [not called]
    IceFloe (unknown version, unknown date) [not called]
    IceDyn (unknown version, unknown date) [not called]


Modeling a floating offshore turbine
Description from the FAST input file: 
  FAST Certification Test #25: NREL 5.0 MW Baseline Wind Turbine with OC4-DeepCwind semi configuration, for use in offshore analysis

Interpolation order for input/output time histories: 2 (quadratic)
Number of correction iterations:  0
Number of rows in Jacobian matrix used for coupling ElastoDyn to HydroDyn:     12


   Requested Time Steps  
  -------------------------------------------------
  Component          Time Step (s)    Subcycles (-)
  -----------------  ---------------  -------------
  FAST (glue code)    1.250E-02
  InflowWind          1.250E-02              1
  ElastoDyn           1.250E-02              1
  ServoDyn            1.250E-02              1
  HydroDyn            1.250E-02              1
  MoorDyn             1.250E-02              1
  FAST output files   5.000E-02              4^-1


   Requested Channels in FAST Output File(s)  
  --------------------------------------------
  Number  Name                  Units                 Generated by
  ------  --------------------  --------------------  ------------
       1  Time                  (s)                   OpenFAST
       2  Wind1VelX             (m/s)                 InflowWind
       3  Wind1VelY             (m/s)                 InflowWind
       4  Wind1VelZ             (m/s)                 InflowWind
       5  Azimuth               (deg)                 ElastoDyn
       6  RotSpeed              (rpm)                 ElastoDyn
       7  GenSpeed              (rpm)                 ElastoDyn
       8  OoPDefl1              (m)                   ElastoDyn
       9  IPDefl1               (m)                   ElastoDyn
      10  TwstDefl1             (deg)                 ElastoDyn
      11  BldPitch1             (deg)                 ElastoDyn
      12  TTDspFA               (m)                   ElastoDyn
      13  TTDspSS               (m)                   ElastoDyn
      14  TTDspTwst             (deg)                 ElastoDyn
      15  PtfmSurge             (m)                   ElastoDyn
      16  PtfmSway              (m)                   ElastoDyn
      17  PtfmHeave             (m)                   ElastoDyn
      18  PtfmRoll              (deg)                 ElastoDyn
      19  PtfmPitch             (deg)                 ElastoDyn
      20  PtfmYaw               (deg)                 ElastoDyn
      21  RootFxc1              (kN)                  ElastoDyn
      22  RootFyc1              (kN)                  ElastoDyn
      23  RootFzc1              (kN)                  ElastoDyn
      24  RootMxc1              (kN-m)                ElastoDyn
      25  RootMyc1              (kN-m)                ElastoDyn
      26  RootMzc1              (kN-m)                ElastoDyn
      27  RotTorq               (kN-m)                ElastoDyn
      28  LSSGagMya             (kN-m)                ElastoDyn
      29  LSSGagMza             (kN-m)                ElastoDyn
      30  YawBrFxp              (kN)                  ElastoDyn
      31  YawBrFyp              (kN)                  ElastoDyn
      32  YawBrFzp              (kN)                  ElastoDyn
      33  YawBrMxp              (kN-m)                ElastoDyn
      34  YawBrMyp              (kN-m)                ElastoDyn
      35  YawBrMzp              (kN-m)                ElastoDyn
      36  TwrBsFxt              (kN)                  ElastoDyn
      37  TwrBsFyt              (kN)                  ElastoDyn
      38  TwrBsFzt              (kN)                  ElastoDyn
      39  TwrBsMxt              (kN-m)                ElastoDyn
      40  TwrBsMyt              (kN-m)                ElastoDyn
      41  TwrBsMzt              (kN-m)                ElastoDyn
      42  GenPwr                (kW)                  ServoDyn
      43  GenTq                 (kN-m)                ServoDyn
      44  NStC1_XQ              INVALID               ServoDyn
      45  NStC1_XQD             INVALID               ServoDyn
      46  NStC1_YQ              INVALID               ServoDyn
      47  NStC1_YQD             INVALID               ServoDyn
      48  NStC1_ZQ              INVALID               ServoDyn
      49  NStC1_ZQD             INVALID               ServoDyn
      50  NStC1_Fxi             INVALID               ServoDyn
      51  NStC1_Fyi             INVALID               ServoDyn
      52  NStC1_Fzi             INVALID               ServoDyn
      53  NStC1_Mxi             INVALID               ServoDyn
      54  NStC1_Myi             INVALID               ServoDyn
      55  NStC1_Mzi             INVALID               ServoDyn
      56  NStC1_Fxl             INVALID               ServoDyn
      57  NStC1_Fyl             INVALID               ServoDyn
      58  NStC1_Fzl             INVALID               ServoDyn
      59  NStC1_Mxl             INVALID               ServoDyn
      60  NStC1_Myl             INVALID               ServoDyn
      61  NStC1_Mzl             INVALID               ServoDyn
      62  TStC1_XQ              INVALID               ServoDyn
      63  TStC1_XQD             INVALID               ServoDyn
      64  TStC1_YQ              INVALID               ServoDyn
      65  TStC1_YQD             INVALID               ServoDyn
      66  TStC1_ZQ              INVALID               ServoDyn
      67  TStC1_ZQD             INVALID               ServoDyn
      68  TStC1_Fxi             INVALID               ServoDyn
      69  TStC1_Fyi             INVALID               ServoDyn
      70  TStC1_Fzi             INVALID               ServoDyn
      71  TStC1_Mxi             INVALID               ServoDyn
      72  TStC1_Myi             INVALID               ServoDyn
      73  TStC1_Mzi             INVALID               ServoDyn
      74  TStC1_Fxl             INVALID               ServoDyn
      75  TStC1_Fyl             INVALID               ServoDyn
      76  TStC1_Fzl             INVALID               ServoDyn
      77  TStC1_Mxl             INVALID               ServoDyn
      78  TStC1_Myl             INVALID               ServoDyn
      79  TStC1_Mzl             INVALID               ServoDyn
      80  BStC1_B1_XQ           INVALID               ServoDyn
      81  BStC1_B1_XQD          INVALID               ServoDyn
      82  BStC1_B1_YQ           INVALID               ServoDyn
      83  BStC1_B1_YQD          INVALID               ServoDyn
      84  BStC1_B1_ZQ           INVALID               ServoDyn
      85  BStC1_B1_ZQD          INVALID               ServoDyn
      86  BStC1_B1_Fxi          INVALID               ServoDyn
      87  BStC1_B1_Fyi          INVALID               ServoDyn
      88  BStC1_B1_Fzi          INVALID               ServoDyn
      89  BStC1_B1_Mxi          INVALID               ServoDyn
      90  BStC1_B1_Myi          INVALID               ServoDyn
      91  BStC1_B1_Mzi          INVALID               ServoDyn
      92  BStC1_B1_Fxl          INVALID               ServoDyn
      93  BStC1_B1_Fyl          INVALID               ServoDyn
      94  BStC1_B1_Fzl          INVALID               ServoDyn
      95  BStC1_B1_Mxl          INVALID               ServoDyn
      96  BStC1_B1_Myl          INVALID               ServoDyn
      97  BStC1_B1_Mzl          INVALID               ServoDyn
      98  BStC1_B2_XQ           INVALID               ServoDyn
      99  BStC1_B2_XQD          INVALID               ServoDyn
     100  BStC1_B2_YQ           INVALID               ServoDyn
     101  BStC1_B2_YQD          INVALID               ServoDyn
     102  BStC1_B2_ZQ           INVALID               ServoDyn
     103  BStC1_B2_ZQD          INVALID               ServoDyn
     104  BStC1_B2_Fxi          INVALID               ServoDyn
     105  BStC1_B2_Fyi          INVALID               ServoDyn
     106  BStC1_B2_Fzi          INVALID               ServoDyn
     107  BStC1_B2_Mxi          INVALID               ServoDyn
     108  BStC1_B2_Myi          INVALID               ServoDyn
     109  BStC1_B2_Mzi          INVALID               ServoDyn
     110  BStC1_B2_Fxl          INVALID               ServoDyn
     111  BStC1_B2_Fyl          INVALID               ServoDyn
     112  BStC1_B2_Fzl          INVALID               ServoDyn
     113  BStC1_B2_Mxl          INVALID               ServoDyn
     114  BStC1_B2_Myl          INVALID               ServoDyn
     115  BStC1_B2_Mzl          INVALID               ServoDyn
     116  BStC1_B3_XQ           INVALID               ServoDyn
     117  BStC1_B3_XQD          INVALID               ServoDyn
     118  BStC1_B3_YQ           INVALID               ServoDyn
     119  BStC1_B3_YQD          INVALID               ServoDyn
     120  BStC1_B3_ZQ           INVALID               ServoDyn
     121  BStC1_B3_ZQD          INVALID               ServoDyn
     122  BStC1_B3_Fxi          INVALID               ServoDyn
     123  BStC1_B3_Fyi          INVALID               ServoDyn
     124  BStC1_B3_Fzi          INVALID               ServoDyn
     125  BStC1_B3_Mxi          INVALID               ServoDyn
     126  BStC1_B3_Myi          INVALID               ServoDyn
     127  BStC1_B3_Mzi          INVALID               ServoDyn
     128  BStC1_B3_Fxl          INVALID               ServoDyn
     129  BStC1_B3_Fyl          INVALID               ServoDyn
     130  BStC1_B3_Fzl          INVALID               ServoDyn
     131  BStC1_B3_Mxl          INVALID               ServoDyn
     132  BStC1_B3_Myl          INVALID               ServoDyn
     133  BStC1_B3_Mzl          INVALID               ServoDyn
     134  SStC1_XQ              (m)                   ServoDyn
     135  SStC1_XQD             (m/s)                 ServoDyn
     136  SStC1_YQ              (m)                   ServoDyn
     137  SStC1_YQD             (m/s)                 ServoDyn
     138  SStC1_ZQ              (m)                   ServoDyn
     139  SStC1_ZQD             (m/s)                 ServoDyn
     140  SStC1_Fxi             (kN)                  ServoDyn
     141  SStC1_Fyi             (kN)                  ServoDyn
     142  SStC1_Fzi             (kN)                  ServoDyn
     143  SStC1_Mxi             (kN-m)                ServoDyn
     144  SStC1_Myi             (kN-m)                ServoDyn
     145  SStC1_Mzi             (kN-m)                ServoDyn
     146  SStC1_Fxl             (kN)                  ServoDyn
     147  SStC1_Fyl             (kN)                  ServoDyn
     148  SStC1_Fzl             (kN)                  ServoDyn
     149  SStC1_Mxl             (kN-m)                ServoDyn
     150  SStC1_Myl             (kN-m)                ServoDyn
     151  SStC1_Mzl             (kN-m)                ServoDyn
     152  SStC2_XQ              (m)                   ServoDyn
     153  SStC2_XQD             (m/s)                 ServoDyn
     154  SStC2_YQ              (m)                   ServoDyn
     155  SStC2_YQD             (m/s)                 ServoDyn
     156  SStC2_ZQ              (m)                   ServoDyn
     157  SStC2_ZQD             (m/s)                 ServoDyn
     158  SStC2_Fxi             (kN)                  ServoDyn
     159  SStC2_Fyi             (kN)                  ServoDyn
     160  SStC2_Fzi             (kN)                  ServoDyn
     161  SStC2_Mxi             (kN-m)                ServoDyn
     162  SStC2_Myi             (kN-m)                ServoDyn
     163  SStC2_Mzi             (kN-m)                ServoDyn
     164  SStC2_Fxl             (kN)                  ServoDyn
     165  SStC2_Fyl             (kN)                  ServoDyn
     166  SStC2_Fzl             (kN)                  ServoDyn
     167  SStC2_Mxl             (kN-m)                ServoDyn
     168  SStC2_Myl             (kN-m)                ServoDyn
     169  SStC2_Mzl             (kN-m)                ServoDyn
     170  Wave1Elev             (m)                   HydroDyn
     171  HydroFxi              (N)                   HydroDyn
     172  HydroFyi              (N)                   HydroDyn
     173  HydroFzi              (N)                   HydroDyn
     174  HydroMxi              (N-m)                 HydroDyn
     175  HydroMyi              (N-m)                 HydroDyn
     176  HydroMzi              (N-m)                 HydroDyn
     177  B1Surge               (m)                   HydroDyn
     178  B1Sway                (m)                   HydroDyn
     179  B1Heave               (m)                   HydroDyn
     180  B1Roll                (rad)                 HydroDyn
     181  B1Pitch               (rad)                 HydroDyn
     182  B1Yaw                 (rad)                 HydroDyn
     183  FAIRTEN1              (N)                   MoorDyn
     184  FAIRTEN2              (N)                   MoorDyn
     185  FAIRTEN3              (N)                   MoorDyn
     186  ANCHTEN1              (N)                   MoorDyn
     187  ANCHTEN2              (N)                   MoorDyn
     188  ANCHTEN3              (N)                   MoorDyn
