
FAST Summary File

Predictions were generated on 08-May-2023 at 22:33:56 using OpenFAST, compiled as a 64-bit application using single precision at commit v3.2.1-dirty
  compiled with
    NWTC Subroutine Library
    ElastoDyn
    BeamDyn (unknown version, unknown date) [not called]
    InflowWind
    AeroDyn14 (unknown version, unknown date) [not called]
    AeroDyn
    ServoDyn
    HydroDyn
    SubDyn (unknown version, unknown date) [not called]
    ExtPtfm_MCKF (unknown version, unknown date) [not called]
    MAP (unknown version, unknown date) [not called]
    FEAMooring (unknown version, unknown date) [not called]
    MoorDyn
    OrcaFlexInterface (unknown version, unknown date) [not called]
    IceFloe (unknown version, unknown date) [not called]
    IceDyn (unknown version, unknown date) [not called]


Modeling a floating offshore turbine
Description from the FAST input file: 
  FAST Certification Test #25: NREL 5.0 MW Baseline Wind Turbine with OC4-DeepCwind semi configuration, for use in offshore analysis

Interpolation order for input/output time histories: 2 (quadratic)
Number of correction iterations:  0
Number of rows in Jacobian matrix used for coupling ElastoDyn to HydroDyn:     12


   Requested Time Steps  
  -------------------------------------------------
  Component          Time Step (s)    Subcycles (-)
  -----------------  ---------------  -------------
  FAST (glue code)    1.250E-02
  InflowWind          1.250E-02              1
  ElastoDyn           1.250E-02              1
  AeroDyn             1.250E-02              1
  ServoDyn            1.250E-02              1
  HydroDyn            1.250E-02              1
  MoorDyn             1.250E-02              1
  FAST output files   1.250E-02              1


   Requested Channels in FAST Output File(s)  
  --------------------------------------------
  Number  Name                  Units                 Generated by
  ------  --------------------  --------------------  ------------
       1  Time                  (s)                   OpenFAST
       2  Wind1VelX             (m/s)                 InflowWind
       3  Wind1VelY             (m/s)                 InflowWind
       4  Wind1VelZ             (m/s)                 InflowWind
       5  Azimuth               (deg)                 ElastoDyn
       6  RotSpeed              (rpm)                 ElastoDyn
       7  GenSpeed              (rpm)                 ElastoDyn
       8  OoPDefl1              (m)                   ElastoDyn
       9  IPDefl1               (m)                   ElastoDyn
      10  TwstDefl1             (deg)                 ElastoDyn
      11  BldPitch1             (deg)                 ElastoDyn
      12  TTDspFA               (m)                   ElastoDyn
      13  TTDspSS               (m)                   ElastoDyn
      14  TTDspTwst             (deg)                 ElastoDyn
      15  PtfmSurge             (m)                   ElastoDyn
      16  PtfmSway              (m)                   ElastoDyn
      17  PtfmHeave             (m)                   ElastoDyn
      18  PtfmRoll              (deg)                 ElastoDyn
      19  PtfmPitch             (deg)                 ElastoDyn
      20  PtfmYaw               (deg)                 ElastoDyn
      21  RtArea                (m^2)                 AeroDyn
      22  B1N3Clrnc             (m)                   AeroDyn
      23  B2N3Clrnc             (m)                   AeroDyn
      24  B3N3Clrnc             (m)                   AeroDyn
      25  GenPwr                (kW)                  ServoDyn
      26  GenTq                 (kN-m)                ServoDyn
      27  SStC1_XQ              (m)                   ServoDyn
      28  SStC1_XQD             (m/s)                 ServoDyn
      29  SStC1_YQ              (m)                   ServoDyn
      30  SStC1_YQD             (m/s)                 ServoDyn
      31  SStC1_ZQ              (m)                   ServoDyn
      32  SStC1_ZQD             (m/s)                 ServoDyn
      33  SStC1_bQ              (m)                   ServoDyn
      34  SStC1_bQD             (m/s)                 ServoDyn
      35  SStC1_Fxi             (kN)                  ServoDyn
      36  SStC1_Fyi             (kN)                  ServoDyn
      37  SStC1_Fzi             (kN)                  ServoDyn
      38  SStC1_Mxi             (kN-m)                ServoDyn
      39  SStC1_Myi             (kN-m)                ServoDyn
      40  SStC1_Mzi             (kN-m)                ServoDyn
      41  SStC1_Fxl             (kN)                  ServoDyn
      42  SStC1_Fyl             (kN)                  ServoDyn
      43  SStC1_Fzl             (kN)                  ServoDyn
      44  SStC1_Mxl             (kN-m)                ServoDyn
      45  SStC1_Myl             (kN-m)                ServoDyn
      46  SStC1_Mzl             (kN-m)                ServoDyn
      47  SStC2_XQ              (m)                   ServoDyn
      48  SStC2_XQD             (m/s)                 ServoDyn
      49  SStC2_YQ              (m)                   ServoDyn
      50  SStC2_YQD             (m/s)                 ServoDyn
      51  SStC2_ZQ              (m)                   ServoDyn
      52  SStC2_ZQD             (m/s)                 ServoDyn
      53  SStC2_bQ              (m)                   ServoDyn
      54  SStC2_bQD             (m/s)                 ServoDyn
      55  SStC2_Fxi             (kN)                  ServoDyn
      56  SStC2_Fyi             (kN)                  ServoDyn
      57  SStC2_Fzi             (kN)                  ServoDyn
      58  SStC2_Mxi             (kN-m)                ServoDyn
      59  SStC2_Myi             (kN-m)                ServoDyn
      60  SStC2_Mzi             (kN-m)                ServoDyn
      61  SStC2_Fxl             (kN)                  ServoDyn
      62  SStC2_Fyl             (kN)                  ServoDyn
      63  SStC2_Fzl             (kN)                  ServoDyn
      64  SStC2_Mxl             (kN-m)                ServoDyn
      65  SStC2_Myl             (kN-m)                ServoDyn
      66  SStC2_Mzl             (kN-m)                ServoDyn
      67  SStC3_XQ              (m)                   ServoDyn
      68  SStC3_XQD             (m/s)                 ServoDyn
      69  SStC3_YQ              (m)                   ServoDyn
      70  SStC3_YQD             (m/s)                 ServoDyn
      71  SStC3_ZQ              (m)                   ServoDyn
      72  SStC3_ZQD             (m/s)                 ServoDyn
      73  SStC3_bQ              (m)                   ServoDyn
      74  SStC3_bQD             (m/s)                 ServoDyn
      75  SStC3_Fxi             (kN)                  ServoDyn
      76  SStC3_Fyi             (kN)                  ServoDyn
      77  SStC3_Fzi             (kN)                  ServoDyn
      78  SStC3_Mxi             (kN-m)                ServoDyn
      79  SStC3_Myi             (kN-m)                ServoDyn
      80  SStC3_Mzi             (kN-m)                ServoDyn
      81  SStC3_Fxl             (kN)                  ServoDyn
      82  SStC3_Fyl             (kN)                  ServoDyn
      83  SStC3_Fzl             (kN)                  ServoDyn
      84  SStC3_Mxl             (kN-m)                ServoDyn
      85  SStC3_Myl             (kN-m)                ServoDyn
      86  SStC3_Mzl             (kN-m)                ServoDyn
      87  Wave1Elev             (m)                   HydroDyn
      88  HydroFxi              (N)                   HydroDyn
      89  HydroFyi              (N)                   HydroDyn
      90  HydroFzi              (N)                   HydroDyn
      91  HydroMxi              (N-m)                 HydroDyn
      92  HydroMyi              (N-m)                 HydroDyn
      93  HydroMzi              (N-m)                 HydroDyn
      94  B1Surge               (m)                   HydroDyn
      95  B1Sway                (m)                   HydroDyn
      96  B1Heave               (m)                   HydroDyn
      97  B1Roll                (rad)                 HydroDyn
      98  B1Pitch               (rad)                 HydroDyn
      99  B1Yaw                 (rad)                 HydroDyn
     100  FAIRTEN1              (N)                   MoorDyn
     101  FAIRTEN2              (N)                   MoorDyn
     102  FAIRTEN3              (N)                   MoorDyn
     103  ANCHTEN1              (N)                   MoorDyn
     104  ANCHTEN2              (N)                   MoorDyn
     105  ANCHTEN3              (N)                   MoorDyn
