
FAST Summary File

Predictions were generated on 23-Apr-2023 at 22:59:25 using OpenFAST, compiled as a 64-bit application using single precision at commit v3.2.1-dirty
  compiled with
    NWTC Subroutine Library
    ElastoDyn
    BeamDyn (unknown version, unknown date) [not called]
    InflowWind (unknown version, unknown date) [not called]
    AeroDyn14 (unknown version, unknown date) [not called]
    AeroDyn (unknown version, unknown date) [not called]
    ServoDyn
    HydroDyn
    SubDyn (unknown version, unknown date) [not called]
    ExtPtfm_MCKF (unknown version, unknown date) [not called]
    MAP (unknown version, unknown date) [not called]
    FEAMooring (unknown version, unknown date) [not called]
    MoorDyn
    OrcaFlexInterface (unknown version, unknown date) [not called]
    IceFloe (unknown version, unknown date) [not called]
    IceDyn (unknown version, unknown date) [not called]


Modeling a floating offshore turbine
Description from the FAST input file: 
  FAST Certification Test #25: NREL 5.0 MW Baseline Wind Turbine with OC4-DeepCwind semi configuration, for use in offshore analysis

Interpolation order for input/output time histories: 2 (quadratic)
Number of correction iterations:  0
Number of rows in Jacobian matrix used for coupling ElastoDyn to HydroDyn:     12


   Requested Time Steps  
  -------------------------------------------------
  Component          Time Step (s)    Subcycles (-)
  -----------------  ---------------  -------------
  FAST (glue code)    1.250E-02
  ElastoDyn           1.250E-02              1
  ServoDyn            1.250E-02              1
  HydroDyn            1.250E-02              1
  MoorDyn             1.250E-02              1
  FAST output files   1.250E-02              1


   Requested Channels in FAST Output File(s)  
  --------------------------------------------
  Number  Name                  Units                 Generated by
  ------  --------------------  --------------------  ------------
       1  Time                  (s)                   OpenFAST
       2  Azimuth               (deg)                 ElastoDyn
       3  RotSpeed              (rpm)                 ElastoDyn
       4  GenSpeed              (rpm)                 ElastoDyn
       5  OoPDefl1              (m)                   ElastoDyn
       6  IPDefl1               (m)                   ElastoDyn
       7  TwstDefl1             (deg)                 ElastoDyn
       8  BldPitch1             (deg)                 ElastoDyn
       9  TTDspFA               (m)                   ElastoDyn
      10  TTDspSS               (m)                   ElastoDyn
      11  TTDspTwst             (deg)                 ElastoDyn
      12  PtfmSurge             (m)                   ElastoDyn
      13  PtfmSway              (m)                   ElastoDyn
      14  PtfmHeave             (m)                   ElastoDyn
      15  PtfmRoll              (deg)                 ElastoDyn
      16  PtfmPitch             (deg)                 ElastoDyn
      17  PtfmYaw               (deg)                 ElastoDyn
      18  GenPwr                (kW)                  ServoDyn
      19  GenTq                 (kN-m)                ServoDyn
      20  SStC1_ZQ              (m)                   ServoDyn
      21  SStC1_ZQD             (m/s)                 ServoDyn
      22  SStC1_bQ              (m)                   ServoDyn
      23  SStC1_bQD             (m/s)                 ServoDyn
      24  SStC2_ZQ              (m)                   ServoDyn
      25  SStC2_ZQD             (m/s)                 ServoDyn
      26  SStC2_bQ              (m)                   ServoDyn
      27  SStC2_bQD             (m/s)                 ServoDyn
      28  SStC3_ZQ              (m)                   ServoDyn
      29  SStC3_ZQD             (m/s)                 ServoDyn
      30  SStC3_bQ              (m)                   ServoDyn
      31  SStC3_bQD             (m/s)                 ServoDyn
      32  Wave1Elev             (m)                   HydroDyn
      33  HydroFxi              (N)                   HydroDyn
      34  HydroFyi              (N)                   HydroDyn
      35  HydroFzi              (N)                   HydroDyn
      36  HydroMxi              (N-m)                 HydroDyn
      37  HydroMyi              (N-m)                 HydroDyn
      38  HydroMzi              (N-m)                 HydroDyn
      39  B1Surge               (m)                   HydroDyn
      40  B1Sway                (m)                   HydroDyn
      41  B1Heave               (m)                   HydroDyn
      42  B1Roll                (rad)                 HydroDyn
      43  B1Pitch               (rad)                 HydroDyn
      44  B1Yaw                 (rad)                 HydroDyn
      45  FAIRTEN1              (N)                   MoorDyn
      46  FAIRTEN2              (N)                   MoorDyn
      47  FAIRTEN3              (N)                   MoorDyn
      48  ANCHTEN1              (N)                   MoorDyn
      49  ANCHTEN2              (N)                   MoorDyn
      50  ANCHTEN3              (N)                   MoorDyn
